# vtk DataFile Version 2.0
plateHole_L5R.1, Created by Gmsh 4.9.4 
ASCII
DATASET UNSTRUCTURED_GRID
POINTS 127 double
0 1 0
1 0 0
4 0 0
4 4 0
0 4 0
0.3826834332336513 0.9238795321515167 0
0.7071067827963323 0.7071067795767627 0
0.9238795330035807 0.3826834311765871 0
1.374999999998402 0 0
1.74999999999629 0 0
2.124999999996207 0 0
2.49999999999631 0 0
2.874999999996795 0 0
3.249999999998153 0 0
3.624999999998931 0 0
4 0.4999999999991029 0
4 0.9999999999976482 0
4 1.499999999996212 0
4 1.999999999994776 0
4 2.499999999996071 0
4 2.999999999997367 0
4 3.499999999998683 0
3.500000000000419 4 0
3.000000000001386 4 0
2.500000000004512 4 0
2.000000000008237 4 0
1.500000000006199 4 0
1.000000000004162 4 0
0.5000000000020806 4 0
0 3.625000000001211 0
0 3.250000000003515 0
0 2.875000000003175 0
0 2.500000000002347 0
0 2.125000000002245 0
0 1.750000000001176 0
0 1.37500000000059 0
0.6622316849234432 2.026759935377637 0
2.1667333066315 0.5791274810964666 0
2.819881587794159 2.427698921608882 0
1.337720069645423 3.037541566116137 0
2.965751880557472 1.374848091725123 0
2.331943398911423 1.794991616330038 0
2.761255807215054 0.6073709651309966 0
2.128936675589018 3.195861279330572 0
0.6383437820455257 2.764418766382232 0
1.659195909224729 0.6221902315773947 0
1.151576422929214 1.37949548022166 0
2.437551300316054 0.9151161014124586 0
0.6406996204179657 1.490116063251053 0
1.550379168996924 2.191501704575512 0
1.871714512346809 1.201354136135758 0
2.190426516065337 2.629455304818763 0
3.014127435455251 3.159710566055078 0
0.5159199128559623 3.291238471649162 0
3.246854791815572 0.7418929136693063 0
0.9880319258454746 2.900980166249185 0
0.6502877334844844 2.395589350879935 0
1.106305426960183 2.109130819976575 0
1.444049619321174 2.614521635345825 0
1.047168676402829 2.50505549311288 0
1.168860034824792 3.518770783058069 0
0.7579599564300619 3.645619235824581 0
0.577131847450744 3.027828619015697 0
0.8729959411377681 3.273299701036883 0
0.6514656526707044 1.758437999314345 0
0.8961380216735897 1.434805771736356 0
1.350977795963069 1.785498592398586 0
1.001221724316886 1.771968295856466 0
2.648847639734448 1.58491985402758 0
3.482875940278736 1.687424045859949 0
3.409940793897079 2.213849460801829 0
2.575912493352791 2.11134526896946 0
3.029394216815763 1.899384657414705 0
3.623427395907786 0.8709464568334773 0
3.106303336186522 1.058370502697215 0
3.553151668093261 1.279185251346713 0
1.941161283954173 1.993246660452775 0
1.511645467638012 1.290424808178709 0
2.101828955629116 1.498172876232898 0
1.726403375796092 1.641835734315742 0
1.73332837261722 3.116701422723355 0
2.064468337798627 3.597930639665286 0
1.61666418631171 3.558350711361677 0
1.704597954610509 0.3110951157886974 0
1.183151346010531 0.6646485055770788 0
1.314238743807174 0.3468892734826422 0
3.007063717728318 3.579855283027539 0
3.507063717727625 3.079855283026222 0
3.503531858864022 3.539927641513111 0
0.3311158424617216 1.888379967689406 0
0.3191718910227628 2.632209383192289 0
0.3251438667422422 2.26029467544109 0
2.333366653313905 0.2895637405482333 0
1.912964607928114 0.6006588563369306 0
2.018982303962161 0.3003294281684653 0
2.154632906331432 1.058235118774108 0
2.701651590436763 1.144982096568791 0
2.40174027303294 1.321577486400844 0
2.599403553765554 0.7612435332717276 0
3.004055299515313 0.6746319394001514 0
2.852853444976038 0.9098070179844711 0
2.630627903605682 0.3036854825654983 0
2.302142303473777 0.7471217912544625 0
2.466385103539729 0.5254036369099805 0
0.929341602862773 1.043301129899211 0
0.3203498102089828 1.245058031625526 0
0.6394107274536205 1.179342651943937 0
2.571532055522134 3.177785922692825 0
2.535766027763323 3.588892961346413 0
0.3257328263353522 1.566718999657467 0
1.765455210785769 0.9117721838565762 0
1.347398406824271 0.9775366568778939 0
1.87040284253113 2.410478504697138 0
2.159681595827177 2.912658292074668 0
1.801865607574175 2.763589963710246 0
2.917004511624705 2.79370474383198 0
3.458502255812352 2.646852371914026 0
3.248427395906862 0.3709464568346532 0
2.939527649756054 0.3373159697000757 0
0.2579599564279811 3.270619235826339 0
0.288565923725372 2.951414309509436 0
2.505154051929748 2.528577113213822 0
2.538343053725941 2.853181517953324 0
0.3789799782150308 3.635309617912896 0
3.624213697953358 0.4354732284168781 0
2.223157667941961 2.260911886833298 0
2.033798757129773 0.8294469875555194 0

CELLS 132 612
2 1 8
2 8 9
2 9 10
2 10 11
2 11 12
2 12 13
2 13 14
2 14 2
2 2 15
2 15 16
2 16 17
2 17 18
2 18 19
2 19 20
2 20 21
2 21 3
2 4 29
2 29 30
2 30 31
2 31 32
2 32 33
2 33 34
2 34 35
2 35 0
4 39 55 59 58
4 55 44 56 59
4 59 56 36 57
4 58 59 57 49
4 44 55 63 62
4 55 39 60 63
4 63 60 27 61
4 62 63 61 53
4 49 57 67 66
4 57 36 64 67
4 67 64 48 65
4 66 67 65 46
4 41 68 72 71
4 68 40 69 72
4 72 69 18 70
4 71 72 70 38
4 54 73 75 74
4 73 16 17 75
4 75 17 18 69
4 74 75 69 40
4 41 76 79 78
4 76 49 66 79
4 79 66 46 77
4 78 79 77 50
4 27 60 82 26
4 60 39 80 82
4 82 80 43 81
4 26 82 81 25
4 6 7 85 84
4 7 1 8 85
4 85 8 9 83
4 84 85 83 45
4 23 86 88 22
4 86 52 87 88
4 88 87 20 21
4 22 88 21 3
4 34 89 91 33
4 89 36 56 91
4 91 56 44 90
4 33 91 90 32
4 11 92 94 10
4 92 37 93 94
4 94 93 45 83
4 10 94 83 9
4 50 95 97 78
4 95 47 96 97
4 97 96 40 68
4 78 97 68 41
4 54 74 100 99
4 74 40 96 100
4 100 96 47 98
4 99 100 98 42
4 11 101 103 92
4 101 42 98 103
4 103 98 47 102
4 92 103 102 37
4 0 5 106 105
4 5 6 104 106
4 106 104 46 65
4 105 106 65 48
4 25 81 108 24
4 81 43 107 108
4 108 107 52 86
4 24 108 86 23
4 36 89 109 64
4 89 34 35 109
4 109 35 0 105
4 64 109 105 48
4 6 84 111 104
4 84 45 110 111
4 111 110 50 77
4 104 111 77 46
4 49 112 114 58
4 112 51 113 114
4 114 113 43 80
4 58 114 80 39
4 18 19 116 70
4 19 20 87 116
4 116 87 52 115
4 70 116 115 38
4 11 12 118 101
4 12 13 117 118
4 118 117 54 99
4 101 118 99 42
4 32 90 120 31
4 90 44 62 120
4 120 62 53 119
4 31 120 119 30
4 51 121 122 113
4 121 38 115 122
4 122 115 52 107
4 113 122 107 43
4 27 28 123 61
4 28 4 29 123
4 123 29 30 119
4 61 123 119 53
4 16 73 124 15
4 73 54 117 124
4 124 117 13 14
4 15 124 14 2
4 38 121 125 71
4 121 51 112 125
4 125 112 49 76
4 71 125 76 41
4 45 93 126 110
4 93 37 102 126
4 126 102 47 95
4 110 126 95 50

CELL_TYPES 132
3
3
3
3
3
3
3
3
3
3
3
3
3
3
3
3
3
3
3
3
3
3
3
3
9
9
9
9
9
9
9
9
9
9
9
9
9
9
9
9
9
9
9
9
9
9
9
9
9
9
9
9
9
9
9
9
9
9
9
9
9
9
9
9
9
9
9
9
9
9
9
9
9
9
9
9
9
9
9
9
9
9
9
9
9
9
9
9
9
9
9
9
9
9
9
9
9
9
9
9
9
9
9
9
9
9
9
9
9
9
9
9
9
9
9
9
9
9
9
9
9
9
9
9
9
9
9
9
9
9
9
9

CELL_DATA 132
SCALARS CellEntityIds int 1
LOOKUP_TABLE default
-2
-2
-2
-2
-2
-2
-2
-2
1
1
1
1
1
1
1
1
-1
-1
-1
-1
-1
-1
-1
-1
1
1
1
1
1
1
1
1
1
1
1
1
1
1
1
1
1
1
1
1
1
1
1
1
1
1
1
1
1
1
1
1
1
1
1
1
1
1
1
1
1
1
1
1
1
1
1
1
1
1
1
1
1
1
1
1
1
1
1
1
1
1
1
1
1
1
1
1
1
1
1
1
1
1
1
1
1
1
1
1
1
1
1
1
1
1
1
1
1
1
1
1
1
1
1
1
1
1
1
1
1
1
1
1
1
1
1
1
